# vtk DataFile Version 3.0
vtk output
ASCII
DATASET UNSTRUCTURED_GRID
POINTS 0 float

CELLS 0 0

CELL_TYPES 0

CELL_DATA 0
FIELD FieldData 2

ID 1 0 float

Organ 1 0 float

